! AWR Design Environment (8316) Thu Jul 13 17:04:26 2017
! Document = 'EDA_LNA_comp'
! nPorts: 3, nXvals: 7801

# HZ S RI R 50
!Freq ReS11 ImS11 ReS12 ImS12 ReS13 ImS13 
!	ReS21 ImS21 ReS22 ImS22 ReS23 ImS23 
!	ReS31 ImS31 ReS32 ImS32 ReS33 ImS33 
10000000 -0.9201026 -0.032917091 1.0022234e-005 3.7002059e-005 -6.1923281e-005 -7.8720772e-005 
	3.2967425e-005 2.8799347e-006 -0.91905013 -0.049417644 -1.1236168e-005 -0.00010575247 
	0.030332453 0.0067105327 -0.030594484 -0.0067359722 -0.5439644 0.7298777 
10050000 -0.92231739 -0.020598575 7.4471796e-005 3.5811095e-005 6.0212471e-006 -6.014266e-005 
	4.6495298e-005 -8.0546547e-006 -0.92123188 -0.036667724 -7.5485717e-005 -3.2219188e-005 
	0.031156529 0.0065279381 -0.031461435 -0.0064414569 -0.5396505 0.7321888 
10100000 -0.92404582 -0.0082248985 7.4893368e-005 2.9177495e-005 -1.1300529e-006 -2.3474396e-005 
	4.3280292e-005 4.2659596e-005 -0.92353862 -0.024422844 -4.7060766e-005 -7.661201e-005 
	0.032040772 0.0063196071 -0.032201227 -0.006367963 -0.5361062 0.7343458 
10150000 -0.9257108 0.0033467262 9.1687959e-005 -3.0754433e-005 -5.4820987e-005 4.0567784e-007 
	3.9592881e-005 4.5616281e-007 -0.92527303 -0.012075003 -3.4212522e-005 -5.4005545e-005 
	0.032945989 0.0059817036 -0.033110387 -0.006082788 -0.5318306 0.736264 
10200000 -0.92688083 0.014983381 4.4770979e-005 8.2279421e-006 -9.126978e-006 -3.4138404e-005 
	-3.3028919e-005 -2.1902037e-007 -0.92670384 -0.00067912344 -0.00011099567 -0.00012817813 
	0.033883481 0.0057822544 -0.034055755 -0.0058805937 -0.5281604 0.738625 
10250000 -0.92793241 0.026207325 2.9854797e-005 1.6875461e-005 1.4000255e-006 -1.9463576e-005 
	-2.4648889e-006 -5.4662186e-006 -0.92820436 0.011186626 -3.5654544e-005 -5.2507102e-005 
	0.034707904 0.0055350001 -0.034943108 -0.0056122594 -0.5240629 0.740358 
10300000 -0.92868729 0.03715639 6.983268e-005 2.719607e-005 2.9070669e-005 -6.156208e-005 
	-8.5308346e-006 2.8440969e-005 -0.9295398 0.0225906 -0.0001001019 -8.4026658e-006 
	0.035712702 0.005300371 -0.035835994 -0.0053326323 -0.5199981 0.7422849 
10350000 -0.92938273 0.047992869 8.4393533e-005 -6.0093216e-006 -5.9265588e-005 -6.9114944e-005 
	4.4334265e-005 -1.8265816e-005 -0.93005847 0.033585462 1.1894071e-005 -6.1700118e-005 
	0.036532766 0.005057335 -0.036600842 -0.0049930638 -0.5159479 0.744321 
10400000 -0.92994707 0.0587038 5.3730844e-005 2.3430729e-005 -2.3797465e-005 -4.2819603e-005 
	4.4804156e-005 3.4508624e-005 -0.93086401 0.044590777 -1.3108862e-005 -5.4417576e-005 
	0.037370022 0.0047174712 -0.037553001 -0.0047671537 -0.5120272 0.7464148 
10450000 -0.93022447 0.068899963 3.1349122e-005 7.8035521e-006 -3.9488909e-005 -6.1213126e-005 
	-4.9332578e-005 2.3956036e-005 -0.93143279 0.055071315 -2.2007352e-005 -9.1671115e-005 
	0.038440343 0.0044607231 -0.038476555 -0.0044477533 -0.5080822 0.7481065 
10500000 -0.93073406 0.079257079 2.9582108e-005 -3.2943861e-005 -2.6040144e-005 -8.6493678e-005 
	7.7132522e-005 2.5602714e-005 -0.93207793 0.065526111 -6.9001401e-005 -3.2263708e-005 
	0.039309207 0.0040836295 -0.039591029 -0.004160302 -0.5044435 0.7501023 
10550000 -0.93059752 0.08919126 3.9744179e-005 -8.021306e-006 -3.8952057e-005 -4.6304619e-005 
	1.7404361e-005 1.9827642e-005 -0.9321912 0.075907023 -0.00010069896 -6.3784423e-005 
	0.040308577 0.0037001928 -0.040460928 -0.0037442316 -0.5005215 0.7519157 
10600000 -0.93072447 0.099128264 2.3434305e-005 1.7934981e-005 -6.1135487e-005 -4.492135e-005 
	1.817512e-005 5.1317497e-005 -0.93244438 0.085993599 -4.4484829e-005 -9.7995369e-005 
	0.041295782 0.0034860847 -0.041529566 -0.0034769016 -0.4965146 0.753584 
10650000 -0.93071815 0.1087403 4.2846098e-005 8.7118303e-006 -1.147545e-005 -4.6293552e-005 
	1.2794632e-005 5.1864534e-006 -0.9326177 0.095634801 -7.991657e-005 -4.6096253e-005 
	0.042334802 0.002977418 -0.042377857 -0.0031626646 -0.4922705 0.7558348 
10700000 -0.93046915 0.11814706 0.00010228395 -1.337718e-005 5.5973081e-005 -3.2026427e-005 
	4.5710255e-005 7.0477794e-006 -0.9323244 0.10508124 -4.9380995e-005 -7.362268e-005 
	0.043192254 0.0027103027 -0.043367748 -0.0027725883 -0.4888223 0.7573667 
10750000 -0.92999854 0.12728735 8.2763487e-005 -9.8994972e-007 -2.5146091e-005 -4.6626062e-005 
	5.1193471e-005 3.3231772e-005 -0.9322152 0.11475696 -3.4445618e-005 -5.6205288e-005 
	0.044149173 0.0021868207 -0.044304379 -0.0022790922 -0.4843447 0.7587192 
10800000 -0.92967397 0.13636952 6.6508655e-005 -3.75771e-005 -3.3284053e-005 -3.5208442e-005 
	1.6548691e-005 2.4752343e-005 -0.93166397 0.12402453 -5.1542318e-005 -7.3973189e-005 
	0.04511944 0.0019357821 -0.04535852 -0.0019677026 -0.4806988 0.7606935 
10850000 -0.92885153 0.14553066 6.9782687e-005 -1.4972922e-005 3.2203304e-005 -4.0093834e-005 
	5.2821211e-005 6.4556014e-005 -0.93127705 0.1332067 -4.851119e-005 -8.9908571e-005 
	0.046232465 0.0014065714 -0.046364147 -0.0016447458 -0.4765673 0.762385 
10900000 -0.92860602 0.15406876 1.3546877e-005 -3.5740038e-005 -6.001514e-005 2.0489384e-005 
	5.6749076e-005 -8.1198575e-006 -0.93086424 0.14201651 -8.7676061e-005 5.5354111e-008 
	0.047158647 0.0010390134 -0.047268995 -0.001012859 -0.4724415 0.7642102 
10950000 -0.92748837 0.16265849 8.0621322e-005 -9.1005277e-006 -4.8624574e-005 -6.1936569e-005 
	8.4742938e-005 6.6418091e-005 -0.93023665 0.15078585 -7.6638485e-005 -7.1018646e-005 
	0.048161207 0.00056309364 -0.048431931 -0.00068619742 -0.468623 0.765938 
11000000 -0.92675665 0.17090466 -1.2096355e-005 2.4392765e-005 -0.0001226493 -4.364044e-005 
	2.2967586e-005 5.6449643e-005 -0.92935081 0.15931485 -2.8349036e-005 -7.8130548e-005 
	0.049289347 0.00014200985 -0.049351333 -0.00024417885 -0.4644398 0.7674952 
11050000 -0.92602871 0.17937915 7.9611865e-005 4.4353084e-005 -3.4978112e-005 -1.9463915e-005 
	7.1926136e-007 3.0880384e-005 -0.92853331 0.16794625 -6.0510503e-005 -3.5271154e-005 
	0.050305246 -0.00040546804 -0.050470913 0.00041564694 -0.4602308 0.7693233 
11100000 -0.92497183 0.18754009 0.00011378075 -1.2482625e-005 -1.973365e-006 5.0710632e-005 
	-6.0778453e-005 4.0896614e-006 -0.92801968 0.17630089 -6.1849447e-005 -4.3207637e-005 
	0.051401458 -0.00093372421 -0.051341435 0.00087163098 -0.4562849 0.7707832 
11150000 -0.924094 0.19546714 6.8440751e-005 2.4711889e-005 -3.28089e-005 1.0976594e-005 
	5.8937758e-005 8.1867416e-005 -0.92699272 0.18459586 -6.3889507e-005 -5.3713573e-005 
	0.052575375 -0.0013943732 -0.05243215 0.0013128132 -0.4523703 0.7723756 
11200000 -0.92288724 0.20339487 4.7657268e-005 4.1446055e-005 -2.3931445e-005 -3.2201896e-005 
	2.98014e-005 -1.9131909e-005 -0.92558377 0.19255539 -2.9258484e-006 -7.5127883e-006 
	0.053630791 -0.0018507803 -0.053751922 0.0018472306 -0.4483254 0.7735389 
11250000 -0.92186192 0.2110697 8.1757297e-005 1.3287386e-005 1.0118311e-005 -5.4989352e-005 
	5.9253459e-005 2.5258022e-005 -0.9246145 0.20038195 -5.3538371e-005 -5.1826437e-005 
	0.054671965 -0.002502195 -0.054642563 0.0023242123 -0.4439304 0.7752759 
11300000 -0.92037704 0.21879752 7.7198511e-005 -1.4553386e-005 1.4520356e-005 -7.0131258e-005 
	5.3766898e-005 5.8392931e-006 -0.92330453 0.20797178 -0.00010318482 -4.1408126e-005 
	0.055747761 -0.0031261959 -0.055837573 0.0031079207 -0.4401843 0.7768521 
11350000 -0.91901609 0.22592004 5.1924328e-005 1.8549824e-005 -5.9766001e-006 -1.5551579e-005 
	3.3170546e-005 -1.2455984e-005 -0.922275 0.21563056 -4.2021052e-005 -3.3754107e-005 
	0.056954951 -0.0037158609 -0.056823978 0.0035504776 -0.4356856 0.7783896 
11400000 -0.91769525 0.23331772 4.4837009e-005 -4.3623971e-005 -6.1516105e-005 -9.9322824e-005 
	2.8610805e-005 -2.3116124e-005 -0.92122439 0.22324501 -3.6689183e-005 -9.2562953e-005 
	0.057946044 -0.0044433346 -0.05798328 0.0041403465 -0.4317667 0.7799187 
11450000 -0.91619791 0.24070681 9.4468014e-005 -9.359256e-006 -3.5268873e-005 2.7520313e-006 
	2.1427367e-005 1.68441e-005 -0.91989644 0.23080671 -5.777879e-005 -2.6006193e-005 
	0.059111138 -0.0049901958 -0.059197854 0.0049256816 -0.4279379 0.7813668 
11500000 -0.91498761 0.24766982 8.1202292e-005 2.6727186e-005 -4.5176436e-005 -4.2175416e-005 
	7.2996081e-006 1.4752695e-005 -0.91842895 0.23807183 -3.2450378e-005 -3.8310613e-006 
	0.060416664 -0.0056694916 -0.060289421 0.0053919304 -0.4239137 0.7822811 
11550000 -0.91365685 0.25492744 4.1064552e-005 3.0603117e-006 -3.8569535e-005 -1.5821752e-005 
	4.6037757e-005 1.2103153e-005 -0.91674527 0.24513079 -1.4044267e-005 8.945627e-006 
	0.061405368 -0.0063242098 -0.061466919 0.0061224015 -0.4196776 0.7843217 
11600000 -0.91203422 0.26152621 5.8007276e-005 3.6336931e-005 -4.7041027e-005 -7.0759386e-005 
	0.00010076906 8.0386025e-006 -0.91532085 0.25235781 -1.699727e-005 -4.5410056e-005 
	0.062730165 -0.006948165 -0.062667254 0.0068126494 -0.41591 0.7854854 
11650000 -0.91027174 0.26871494 8.3027406e-005 -4.3506259e-006 -1.33652e-005 -1.5027704e-005 
	3.4276142e-005 -3.0396775e-005 -0.91380176 0.25887282 -5.5994915e-005 -4.137974e-005 
	0.063862331 -0.0077707395 -0.063880063 0.0075199289 -0.4112737 0.7868611 
11700000 -0.90861904 0.27524114 6.2019571e-005 2.3051113e-005 -1.8255135e-005 -6.4330989e-005 
	9.1140995e-005 5.9784542e-005 -0.91268273 0.2662138 -4.9058656e-005 -3.1802073e-005 
	0.065083443 -0.008515576 -0.065049215 0.0083387666 -0.4074103 0.7884411 
11750000 -0.90699223 0.28187118 0.00010168856 -1.8512791e-005 -5.6717777e-005 -5.9508203e-005 
	-7.2886576e-006 3.117265e-005 -0.91089706 0.27245581 -7.3975968e-005 -2.2840692e-005 
	0.066139884 -0.0093588039 -0.066292693 0.0090623008 -0.4037074 0.7893678 
11800000 -0.90534883 0.28846529 0.00011525183 6.7214927e-005 -7.6381603e-005 -5.8681481e-005 
	4.1809995e-005 3.7431497e-005 -0.90919047 0.27910928 -3.5500452e-005 -8.9146887e-005 
	0.067499571 -0.010059969 -0.067558168 0.0098216556 -0.3993516 0.7907937 
11850000 -0.9039712 0.29488949 4.3287571e-005 -4.0096761e-005 -2.8997918e-005 -9.5862128e-005 
	6.2230379e-005 -6.6829683e-006 -0.90799642 0.28621447 -6.2450649e-005 -2.7404134e-005 
	0.068815188 -0.010877044 -0.068718471 0.010656214 -0.3949436 0.7917275 
11900000 -0.90178385 0.30132899 3.1749084e-005 -8.7834903e-006 -1.1150433e-005 -5.9098306e-006 
	3.8854236e-005 6.9431256e-006 -0.90592777 0.29229911 -5.3975233e-005 -4.6385762e-005 
	0.069907085 -0.011798146 -0.069884366 0.011370628 -0.3911006 0.7932611 
11950000 -0.90040905 0.30733292 0.00011233943 8.1602876e-006 -5.3366853e-005 9.3268897e-006 
	5.1759775e-005 5.4413176e-005 -0.90414528 0.29858994 -3.9523824e-005 -3.0999028e-005 
	0.071256782 -0.012608036 -0.07118881 0.012284136 -0.3868521 0.7943411 
12000000 -0.89828283 0.31368977 5.1586581e-005 -4.8073235e-005 -4.3311173e-005 -5.6577775e-005 
	-2.1403332e-005 8.5650617e-005 -0.90220989 0.30498903 -1.2853129e-005 -4.9321188e-005 
	0.072441162 -0.013603162 -0.072407326 0.013275956 -0.3830165 0.7956403 
12050000 -0.89646495 0.31991317 0.00011731902 -1.9323177e-005 1.3362378e-005 -7.7121352e-005 
	6.0633492e-005 4.8632895e-006 -0.90073045 0.31113141 -3.8055215e-005 -5.4986608e-005 
	0.073684372 -0.014607903 -0.073719322 0.014160592 -0.3783008 0.7966662 
12100000 -0.8948392 0.32582676 0.00012082454 -2.4127556e-005 -9.2786975e-005 -7.4045156e-005 
	0.00010372433 -3.1312267e-005 -0.89858953 0.31717633 -3.3305037e-005 -4.1932153e-005 
	0.074963857 -0.015377781 -0.074936433 0.015004888 -0.3747943 0.7977007 
12150000 -0.89296232 0.33166936 0.00010816037 -2.4992485e-005 -4.0577872e-005 -2.6758645e-005 
	5.4777953e-005 4.1508073e-005 -0.89700262 0.32336219 -4.5749374e-005 5.0743217e-006 
	0.076318246 -0.016478206 -0.076250995 0.016027196 -0.3703731 0.7989343 
12200000 -0.89114689 0.3374901 7.3972985e-005 -3.0379215e-005 -7.1508063e-005 -7.1890361e-005 
	4.3594691e-005 -6.3594196e-006 -0.89494206 0.32912474 -3.7951287e-005 -5.6766978e-005 
	0.077688245 -0.017398853 -0.077531995 0.01698508 -0.3662474 0.8000933 
12250000 -0.88883754 0.34321008 8.9081731e-005 -5.2429496e-005 1.2144168e-006 -5.8689909e-005 
	5.7564526e-005 -5.6524612e-005 -0.89316371 0.33506817 -5.183815e-005 -8.3162949e-005 
	0.078997801 -0.018429043 -0.078847886 0.018025554 -0.3619122 0.8009125 
12300000 -0.88691639 0.34898571 9.7371412e-005 -1.0633894e-005 2.7901193e-005 -6.644152e-006 
	4.8951221e-005 1.3679831e-005 -0.89135161 0.34095317 -5.8415258e-007 -1.5741809e-005 
	0.080247352 -0.019476396 -0.080191841 0.018975964 -0.3576605 0.8017674 
12350000 -0.88515356 0.35452832 9.0417544e-005 2.9000272e-006 -6.1201345e-005 -5.6192487e-005 
	4.6519031e-005 1.8361001e-005 -0.8891404 0.34694609 -6.1466725e-005 -3.7195679e-005 
	0.081654472 -0.020459781 -0.081494763 0.020182114 -0.3535912 0.8024792 
12400000 -0.88350293 0.36023115 0.00012247511 -4.8366353e-005 -1.850892e-005 -3.2652276e-005 
	5.1252474e-005 1.9734318e-006 -0.88721908 0.3522528 -9.5703168e-007 -3.3922781e-005 
	0.082967356 -0.021570428 -0.082889359 0.021174664 -0.3492432 0.8036892 
12450000 -0.8812896 0.36556586 5.5643839e-005 1.9567283e-005 -6.2646432e-005 2.7006366e-005 
	-6.8037861e-006 -1.991293e-005 -0.88554253 0.35778608 -4.2548952e-006 -4.0412405e-005 
	0.084246238 -0.022732685 -0.084236578 0.022357812 -0.3452769 0.8047181 
12500000 -0.87925014 0.37122466 4.971934e-005 -2.6773405e-005 -9.7347052e-005 2.081662e-005 
	6.0903251e-005 3.0059829e-005 -0.88327309 0.36320982 -8.7712968e-006 -2.6345978e-005 
	0.085620772 -0.023954 -0.085473226 0.023310732 -0.3414482 0.8059115 
12550000 -0.87717007 0.37660259 5.1010095e-005 -1.0364057e-005 -7.2036414e-005 -1.1329243e-005 
	0.0001408032 3.0041677e-005 -0.88142695 0.36855507 -4.124249e-005 1.3821116e-005 
	0.086993211 -0.024896978 -0.086845487 0.024358063 -0.3374277 0.8063168 
12600000 -0.87511197 0.38184619 0.00015226006 2.5064437e-005 -6.3510078e-005 -4.9630267e-005 
	4.0346639e-005 4.3843164e-005 -0.87932786 0.37440452 -3.4023256e-005 -2.1498243e-005 
	0.088366305 -0.026103243 -0.08835389 0.025653618 -0.332912 0.8076092 
12650000 -0.87311466 0.38701482 0.00011021615 -9.9292331e-005 -5.7392824e-005 -8.3628375e-005 
	-4.0238062e-007 -1.0426254e-005 -0.87726964 0.37963372 4.1535718e-005 -2.6818003e-006 
	0.089711701 -0.027566049 -0.089583477 0.026927189 -0.3293797 0.8080117 
12700000 -0.87076526 0.39231216 0.00010677256 -7.7990695e-005 -9.0794232e-005 -6.9805972e-005 
	6.8502214e-005 -4.5106193e-005 -0.8751921 0.38458463 -1.8785063e-005 -5.102359e-005 
	0.091040269 -0.028716893 -0.091110169 0.028115221 -0.3245909 0.8091354 
12750000 -0.86869799 0.3971056 7.8733949e-005 4.098512e-007 -5.5738798e-005 -2.3165862e-005 
	0.0001063201 6.6095522e-005 -0.87290407 0.39006461 -7.6165561e-005 -6.8366381e-005 
	0.092415765 -0.030044625 -0.09239635 0.029423801 -0.3208733 0.8104494 
12800000 -0.86653054 0.40221276 9.4805655e-005 -2.6308878e-005 -4.0768126e-005 3.7275626e-005 
	5.4130993e-005 -2.5171239e-005 -0.87078952 0.39520124 2.8780259e-005 -6.574363e-005 
	0.093874896 -0.031346623 -0.093856042 0.030894358 -0.3161482 0.8107697 
12850000 -0.86473518 0.40726206 0.00010753243 -4.0287499e-005 -8.2223114e-005 -2.7866855e-005 
	9.0504012e-005 -3.8102024e-006 -0.86841728 0.40008424 -1.6527912e-005 1.5168518e-005 
	0.095323857 -0.032711187 -0.095296948 0.032123866 -0.3122326 0.8111518 
12900000 -0.86243082 0.41237165 7.6761205e-005 -1.4865528e-005 -7.0364832e-005 -5.2710616e-005 
	0.00010170183 5.3158502e-005 -0.86673147 0.40532628 -2.9015933e-005 1.5591567e-006 
	0.09677041 -0.034164565 -0.096606877 0.033407059 -0.307761 0.8121874 
12950000 -0.8600182 0.41740001 0.00014466997 -1.3579974e-005 -6.5341853e-005 -2.3403884e-005 
	2.3254729e-005 1.8030888e-005 -0.86458493 0.41057341 -3.2421995e-005 3.5770148e-005 
	0.09817024 -0.035520582 -0.098193667 0.034903537 -0.3038839 0.8127202 
13000000 -0.85821315 0.42207295 9.5437571e-005 -6.2013734e-006 -9.7781514e-005 -3.5472736e-005 
	2.098744e-005 4.3566878e-005 -0.86230478 0.41511125 -2.2486699e-005 -4.7863092e-005 
	0.099713568 -0.037041556 -0.099518624 0.03630928 -0.2993613 0.8133546 
13050000 -0.85575647 0.42701499 0.00014693172 -7.0808313e-005 -8.7170798e-005 -8.5222178e-005 
	2.5667257e-005 -2.9063735e-005 -0.8602814 0.42003043 -3.4886938e-006 -3.6052298e-005 
	0.10111324 -0.038558466 -0.1010193 0.037732151 -0.2952084 0.8140346 
13100000 -0.85375536 0.43149323 0.00011014177 -6.4144126e-005 -1.5739952e-005 -5.7880039e-005 
	6.8866908e-005 -1.4019619e-005 -0.85803042 0.42476781 -9.530816e-005 -5.3140382e-005 
	0.10263495 -0.039965066 -0.10244844 0.039218098 -0.2913052 0.8149997 
13150000 -0.8515761 0.43644607 5.0695058e-005 1.7682859e-007 -5.7686898e-005 -2.5144957e-005 
	0.00011661228 1.9891579e-005 -0.85588266 0.42947195 -4.6845919e-005 2.1735197e-005 
	0.10402672 -0.041545314 -0.10390971 0.040637742 -0.2872791 0.815447 
13200000 -0.84938425 0.44073609 7.187007e-005 1.6071585e-005 -5.6189589e-005 -3.7699822e-005 
	5.5557927e-005 -1.2419333e-005 -0.85330356 0.43444009 2.4853758e-005 -7.6532111e-005 
	0.10549087 -0.043103694 -0.10542652 0.04228266 -0.283045 0.8160892 
13250000 -0.84721203 0.4457027 0.00012793297 -1.167178e-005 -9.9812901e-005 -1.7455556e-005 
	2.0786928e-005 3.126535e-005 -0.85158802 0.43891385 -7.6175363e-005 -8.6733459e-005 
	0.10690249 -0.044835024 -0.10683068 0.043710343 -0.2790113 0.8164109 
13300000 -0.84494754 0.44991948 0.00010664893 5.3067796e-006 -5.3510018e-005 -4.56116e-005 
	4.4222147e-005 3.9619288e-005 -0.84909322 0.44329787 -5.3459461e-005 -6.8962986e-005 
	0.10840819 -0.046224145 -0.1083543 0.045398749 -0.2743948 0.8165898 
13350000 -0.84250749 0.45466908 6.7312507e-005 1.7246004e-005 -3.8147227e-005 -4.9334347e-005 
	0.00012041607 1.2496654e-005 -0.84716513 0.44812775 -2.2716611e-005 -4.0257915e-005 
	0.10988 -0.048119049 -0.10982559 0.047161145 -0.2704502 0.8171269 
13400000 -0.84047672 0.45901241 0.0001248338 -2.7208572e-005 -5.4034279e-005 -5.2120782e-005 
	8.4493883e-005 4.1593041e-005 -0.84475047 0.45248219 9.587631e-006 -9.3891817e-005 
	0.11147293 -0.049685255 -0.11132072 0.04870242 -0.2659045 0.818371 
13450000 -0.83797353 0.46340223 0.0001283343 2.0080672e-005 -8.6520808e-005 -9.2619056e-005 
	0.0001267411 -8.3487167e-005 -0.84232099 0.45697705 5.3392311e-005 -3.7055912e-005 
	0.11298048 -0.051439285 -0.11278032 0.050409304 -0.2619337 0.8188245 
13500000 -0.83574795 0.46799591 0.00019258454 -5.2665674e-005 -6.6243985e-005 -3.5641363e-005 
	0.00010193957 4.3999912e-006 -0.84014344 0.46134611 -0.00010928991 -6.7353266e-005 
	0.11449753 -0.053271729 -0.11416937 0.052280088 -0.2578701 0.818962 
13550000 -0.8333941 0.47182349 0.00015881852 -4.5649586e-005 -0.00010954683 -7.8384033e-006 
	0.00011381374 -1.1732631e-005 -0.8377325 0.46562357 3.6938343e-005 -3.5605411e-005 
	0.11592128 -0.054968305 -0.11570769 0.053812621 -0.2537107 0.8196357 
13600000 -0.83094718 0.47642501 0.00010548829 -4.838948e-005 -8.7787319e-005 -2.581169e-005 
	0.000123162 1.1473287e-005 -0.83552072 0.46998766 1.0322395e-005 -3.6331794e-006 
	0.11723301 -0.056985089 -0.1172382 0.055765156 -0.2499198 0.8194658 
13650000 -0.82886935 0.48086506 0.00012592296 -9.5867021e-005 -6.4944557e-005 -5.7449532e-005 
	3.7553185e-005 -2.3070591e-005 -0.83319787 0.47429418 -3.7622101e-005 -7.4772597e-005 
	0.1189586 -0.058792399 -0.11868078 0.057479416 -0.245441 0.8201309 
13700000 -0.82644977 0.4847551 0.00017525138 -3.7060729e-006 1.0540431e-005 -5.3890176e-005 
	8.4561626e-005 -5.1370387e-005 -0.83073206 0.47893183 -1.1421398e-005 -5.594556e-005 
	0.12038353 -0.060842471 -0.12023753 0.059605046 -0.2411544 0.8208759 
13750000 -0.82427569 0.48909578 0.0001641304 -8.6979994e-006 -7.5482902e-005 -2.9114639e-005 
	9.8775948e-005 -1.2060335e-005 -0.82832324 0.48308683 -2.7382049e-005 -1.0955879e-005 
	0.12185267 -0.062574805 -0.12158121 0.061384548 -0.2370592 0.8208342 
13800000 -0.82190533 0.49299223 0.00014271959 -1.8894787e-005 -0.00011124972 3.7285224e-005 
	8.7018182e-005 -3.0089333e-005 -0.82618071 0.48713191 -1.4265569e-005 -5.4757455e-005 
	0.12349512 -0.064636112 -0.12325539 0.063274404 -0.2333353 0.820764 
13850000 -0.81971601 0.49724962 0.00012314596 -8.7080579e-005 -4.3867287e-005 -4.1511944e-005 
	0.00015322657 -2.5727007e-005 -0.82387303 0.49134006 -6.0354554e-005 -8.514239e-005 
	0.1249715 -0.066598372 -0.12475804 0.065264202 -0.2290248 0.8211642 
13900000 -0.81706915 0.5008138 0.00015856978 -4.9674336e-005 -8.8367777e-005 -2.3827191e-005 
	0.00013128201 -1.303748e-005 -0.82139709 0.49567694 -5.1785674e-005 -5.9092922e-006 
	0.12643864 -0.068657568 -0.12618503 0.067404662 -0.2249899 0.8217153 
13950000 -0.81500543 0.50528579 0.00012210786 -3.2480337e-005 -8.1218353e-005 -2.7900476e-005 
	0.00010194618 6.0733604e-006 -0.81908414 0.49917434 5.0222773e-006 -4.4812084e-005 
	0.12781584 -0.070840747 -0.12768694 0.069593714 -0.2206494 0.8216513 
14000000 -0.8123805 0.50946927 0.00017813258 1.1867352e-005 -2.6616935e-005 -7.4420945e-005 
	0.00014207202 -3.7050455e-005 -0.8168272 0.5034377 -3.4925936e-005 -6.6655372e-005 
	0.12946043 -0.07297553 -0.12924069 0.071417617 -0.2164296 0.8220263 
14050000 -0.80999768 0.51316947 0.0001674041 7.7435425e-006 -3.0399721e-005 -3.0236362e-005 
	0.00010303016 6.030853e-005 -0.81435178 0.50723491 5.2329212e-006 -3.6105855e-005 
	0.13100808 -0.075175847 -0.13071065 0.073596903 -0.2120236 0.8221738 
14100000 -0.80770758 0.51711857 0.0001175802 -5.3308795e-005 -7.790836e-005 2.2120863e-005 
	7.5218914e-005 -2.0745712e-005 -0.81248326 0.51142471 -4.3132629e-005 4.0849861e-006 
	0.13261689 -0.077224513 -0.13248532 0.075850212 -0.208518 0.8219567 
14150000 -0.8052093 0.52108646 0.00014982389 -7.4934553e-005 -5.8530844e-005 -4.5000322e-005 
	0.0001113269 3.4174855e-005 -0.81008681 0.51511891 -2.7633291e-005 -4.5741364e-005 
	0.13400907 -0.079520255 -0.13381528 0.078115623 -0.2039149 0.8220408 
14200000 -0.80302071 0.5248464 0.00015811629 -8.5010111e-005 -6.0899549e-005 -2.1331836e-005 
	4.550816e-005 -5.225563e-005 -0.80721064 0.51908384 -1.1090456e-005 -4.00312e-005 
	0.13547911 -0.081759003 -0.13522209 0.080291225 -0.2003574 0.8219732 
14250000 -0.80034878 0.52866389 0.00011630014 -6.4722872e-005 -0.00014786872 2.5846946e-005 
	0.00012932987 -4.0781906e-005 -0.80481614 0.52292477 -1.3133235e-005 6.5812785e-005 
	0.13699493 -0.084154394 -0.13679841 0.082540445 -0.196279 0.8218834 
14300000 -0.79796419 0.53262308 0.00013954222 -5.322363e-005 -0.00012837271 -3.0605427e-005 
	0.0001544435 -9.4884421e-005 -0.80276644 0.52660408 -6.0308074e-006 5.9425727e-005 
	0.13862319 -0.086605281 -0.13842343 0.084924945 -0.1922091 0.822075 
14350000 -0.79577652 0.53587733 0.00018397256 -7.6017934e-005 -9.6172516e-005 -2.1150733e-005 
	0.00012060921 3.9547223e-006 -0.8001937 0.53052144 -1.0524e-005 -1.2989757e-005 
	0.14007964 -0.089005371 -0.13994804 0.087202956 -0.1879497 0.8225395 
14400000 -0.79355166 0.53965545 0.00013999162 -0.00010983258 -8.4496921e-005 -6.6594341e-006 
	0.0001655187 -2.2191186e-005 -0.79826053 0.53441798 -2.3849816e-005 -3.297216e-005 
	0.14160258 -0.091443591 -0.14139321 0.089743802 -0.1839246 0.8218645 
14450000 -0.7909046 0.54349785 0.00016216353 -8.6979338e-005 -7.9314859e-005 -2.3320988e-005 
	7.5076314e-005 3.1392666e-006 -0.79551022 0.53787486 -1.5085321e-005 3.0946208e-007 
	0.14298528 -0.093973713 -0.14284323 0.092020616 -0.1798158 0.8225959 
14500000 -0.78868377 0.54681826 0.00018476918 -2.8474853e-005 -4.4290185e-005 -3.2844888e-005 
	0.00011875768 6.7019261e-006 -0.79278088 0.54153644 -2.2803078e-005 -2.8972805e-005 
	0.14446882 -0.096496469 -0.1443958 0.094647728 -0.1757091 0.8222744 
14550000 -0.7859661 0.55073909 0.00019040157 -6.8576689e-005 -7.2805116e-005 -7.5027045e-005 
	0.00014664913 -3.2010927e-005 -0.79040959 0.545267 -2.5645557e-005 -0.00011288948 
	0.14604074 -0.099082867 -0.14597667 0.097022005 -0.1717692 0.822131 
14600000 -0.78379591 0.55433668 0.00014729651 2.7437824e-005 -9.8185877e-005 5.5256914e-005 
	0.00012257505 4.4110959e-006 -0.78781665 0.54863128 -2.0632416e-005 -1.6803956e-005 
	0.14754221 -0.10163665 -0.14739526 0.099558944 -0.1672356 0.8224401 
14650000 -0.78139805 0.55754023 0.00014001803 -4.8800225e-005 -7.9614317e-005 2.5065815e-005 
	0.00011268681 -1.1765906e-005 -0.7856251 0.55239093 -3.8810226e-005 -5.3613765e-005 
	0.14900033 -0.1041323 -0.14875994 0.10219322 -0.1629699 0.8224325 
14700000 -0.77873072 0.56115847 0.00014748729 1.7819957e-006 -9.0744543e-005 -6.0808212e-006 
	0.00013809489 3.6281185e-005 -0.78325694 0.5560649 -1.2742944e-005 1.442351e-005 
	0.15048194 -0.10692303 -0.15037999 0.10480127 -0.1593373 0.8219116 
14750000 -0.77636274 0.56471706 9.3153308e-005 -0.00010190288 -8.0902083e-005 -6.9965147e-006 
	0.00018485692 -4.5212234e-005 -0.78078491 0.5593736 1.8343204e-005 8.3665131e-006 
	0.15190794 -0.10952092 -0.15180058 0.10743148 -0.1556077 0.8220277 
14800000 -0.77418432 0.56811424 0.00019221939 -0.00010500156 -8.1076196e-005 -2.9108843e-005 
	0.00018509016 -3.251423e-005 -0.77838569 0.56316402 -3.0387661e-005 -6.0055632e-005 
	0.15338083 -0.11235332 -0.15324635 0.11012477 -0.1511985 0.8220668 
14850000 -0.77137282 0.57188166 0.00017332689 -6.0754104e-005 -0.00010749022 2.7969269e-005 
	0.00014738917 -3.5505363e-005 -0.77590708 0.56614389 4.2532982e-005 -6.0861782e-005 
	0.15488076 -0.11518189 -0.15453105 0.1128354 -0.1472248 0.8217446 
14900000 -0.76902267 0.57539987 0.00024755124 -7.4192172e-005 -0.00012396448 -7.3343097e-005 
	0.00013732883 -7.5560712e-005 -0.77350877 0.56991473 5.274622e-005 1.1167246e-005 
	0.15623785 -0.11814782 -0.15623659 0.11568181 -0.1430492 0.8212704 
14950000 -0.76652391 0.57858163 0.000145364 -0.00014618824 -0.00012458924 -1.6899621e-005 
	0.00013022122 -1.0728793e-005 -0.77095241 0.5733005 1.5858114e-005 5.0544526e-006 
	0.15755265 -0.12095767 -0.1575335 0.11861462 -0.1388157 0.8209858 
15000000 -0.76403913 0.58192431 0.00019068892 -0.00012253667 -8.3763334e-005 -3.4319089e-006 
	0.00011476877 -4.5639974e-005 -0.7685459 0.57665492 -7.2349135e-006 -2.4942156e-005 
	0.15897048 -0.12389733 -0.15895872 0.12144575 -0.1349728 0.8207394 
15050000 -0.76135051 0.58515445 0.00020089616 -9.7193452e-005 -9.9193623e-005 -1.8698118e-006 
	0.00013807294 -1.6465069e-005 -0.7657893 0.57997574 -2.6941065e-005 -7.0878323e-006 
	0.16044763 -0.12690604 -0.16034488 0.12421329 -0.1309017 0.8204714 
15100000 -0.75914037 0.58830282 0.00016133655 -7.3945048e-005 -6.1370469e-005 -3.0411009e-006 
	0.00010923317 -5.2659858e-005 -0.76358031 0.5832891 -3.1640119e-005 -1.7027538e-005 
	0.16185744 -0.12983086 -0.16187928 0.12736766 -0.126789 0.8199431 
15150000 -0.75609323 0.59129226 0.00021611605 -0.00010644622 -9.7359303e-005 -7.2449508e-005 
	0.00014833869 -2.6628288e-005 -0.76136515 0.58665481 3.7704565e-005 -2.7729845e-005 
	0.16314999 -0.13274636 -0.16325434 0.13032117 -0.1229375 0.8198045 
15200000 -0.75370959 0.59470721 0.00024472691 -9.5874847e-005 -0.00016509991 4.6950351e-005 
	0.00017225295 -5.7747103e-005 -0.75843009 0.58974837 3.3530078e-005 -5.1382955e-005 
	0.16451111 -0.13607909 -0.16463859 0.13333812 -0.1191377 0.8197179 
15250000 -0.75173561 0.59803752 0.00019583471 -0.00012602462 -0.00012151412 -1.0037356e-005 
	0.00012632286 -5.2543309e-005 -0.75627795 0.59312955 -1.9613849e-005 5.5890278e-006 
	0.16597322 -0.13933173 -0.16601346 0.13639306 -0.1148155 0.8191297 
15300000 -0.74898712 0.60108371 0.00017470205 -0.00013704888 -9.0976907e-005 -4.7253107e-006 
	0.0001708135 -3.8691649e-005 -0.75339375 0.59657842 4.165732e-006 -3.2515374e-005 
	0.16731498 -0.14241186 -0.16727907 0.13963607 -0.1110717 0.8192102 
15350000 -0.74654727 0.60475111 0.00020722997 -5.46e-005 -0.00011728149 5.8042882e-005 
	0.0001895741 1.8961502e-005 -0.75091162 0.5994201 -7.4380986e-006 6.1430684e-006 
	0.16865599 -0.14562297 -0.16869954 0.14270759 -0.1070294 0.8184773 
15400000 -0.74405597 0.60769848 0.0002426751 -0.00013595208 -8.6544116e-005 3.5046333e-005 
	0.00019058865 -2.6350819e-005 -0.74841407 0.60240551 1.6293369e-005 -8.6498248e-005 
	0.16993289 -0.14905947 -0.17005747 0.1461349 -0.102904 0.8179289 
15450000 -0.74168228 0.61066841 0.00023452892 -0.00010540389 -0.00014622898 -2.6999828e-005 
	0.00020708351 -8.8540559e-005 -0.74658622 0.60605568 2.6251928e-005 -3.7753235e-005 
	0.17132281 -0.15228784 -0.17157587 0.1492824 -0.09918209 0.8176541 
15500000 -0.73865482 0.61403754 0.0002313582 -0.00010263107 -0.00013622859 -2.7250181e-005 
	0.00023426398 -5.4119419e-006 -0.74390105 0.60894399 4.6225609e-005 -4.8906316e-005 
	0.17247026 -0.15580466 -0.17266779 0.15257982 -0.09501609 0.8172675 
15550000 -0.73626939 0.61722321 0.00027884565 -0.00010286506 -7.1973299e-005 2.1250411e-006 
	0.00019643393 -0.00010496611 -0.74073556 0.61213865 -2.5476313e-005 -5.335559e-005 
	0.17403446 -0.15919953 -0.17406928 0.15625718 -0.091231 0.8168602 
15600000 -0.73427322 0.61984992 0.00023133824 -0.00013262886 -8.7713132e-005 3.0143361e-006 
	0.00016302032 -8.6912064e-005 -0.73854126 0.61531062 3.9952577e-005 -4.276032e-006 
	0.17534257 -0.1626335 -0.17531448 0.15953578 -0.08753729 0.8161255 
15650000 -0.73127421 0.62323243 0.00028921353 -0.00012969303 -0.00016730256 2.3627163e-005 
	0.00023260489 -3.5548947e-005 -0.73605169 0.61866957 4.7359379e-005 -2.9182034e-005 
	0.17631319 -0.16607449 -0.176763 0.16298631 -0.08295634 0.8159968 
15700000 -0.72898415 0.62633914 0.00026287602 -0.00012085415 -0.00010896073 3.4896279e-005 
	0.0001842959 -6.9549412e-005 -0.73358576 0.62157996 5.0636104e-005 -3.79469e-006 
	0.17784083 -0.16979559 -0.17815373 0.16657891 -0.07928514 0.8154612 
15750000 -0.72649057 0.62910195 0.00022724931 -0.00010457535 -0.00015083489 8.3412795e-006 
	0.00011874083 -5.5910452e-005 -0.7309977 0.62430557 4.5661695e-005 -8.0371983e-005 
	0.17887829 -0.17347298 -0.17908086 0.1699359 -0.07505872 0.8151951 
15800000 -0.72378676 0.63231367 0.00019995681 -0.00023337169 -0.00013758294 8.3535048e-005 